 Entering Gaussian System, Link 0=g09
 Initial command:
 /sw/contrib/gaussian/g09/A02/g09/l1.exe /scr/Gau-18376.inp -scrdir=/scr/
 Entering Link 1 = /sw/contrib/gaussian/g09/A02/g09/l1.exe PID=     18377.
  
 Copyright (c) 1988,1990,1992,1993,1995,1998,2003,2009, Gaussian, Inc.
                  All Rights Reserved.
  
 This is part of the Gaussian(R) 09 program.  It is based on
 the Gaussian(R) 03 system (copyright 2003, Gaussian, Inc.),
 the Gaussian(R) 98 system (copyright 1998, Gaussian, Inc.),
 the Gaussian(R) 94 system (copyright 1995, Gaussian, Inc.),
 the Gaussian 92(TM) system (copyright 1992, Gaussian, Inc.),
 the Gaussian 90(TM) system (copyright 1990, Gaussian, Inc.),
 the Gaussian 88(TM) system (copyright 1988, Gaussian, Inc.),
 the Gaussian 86(TM) system (copyright 1986, Carnegie Mellon
 University), and the Gaussian 82(TM) system (copyright 1983,
 Carnegie Mellon University). Gaussian is a federally registered
 trademark of Gaussian, Inc.
  
 This software contains proprietary and confidential information,
 including trade secrets, belonging to Gaussian, Inc.
  
 This software is provided under written license and may be
 used, copied, transmitted, or stored only in accord with that
 written license.
  
 The following legend is applicable only to US Government
 contracts under FAR:
  
                    RESTRICTED RIGHTS LEGEND
  
 Use, reproduction and disclosure by the US Government is
 subject to restrictions as set forth in subparagraphs (a)
 and (c) of the Commercial Computer Software - Restricted
 Rights clause in FAR 52.227-19.
  
 Gaussian, Inc.
 340 Quinnipiac St., Bldg. 40, Wallingford CT 06492
  
  
 ---------------------------------------------------------------
 Warning -- This program may not be used in any manner that
 competes with the business of Gaussian, Inc. or will provide
 assistance to any competitor of Gaussian, Inc.  The licensee
 of this program is prohibited from giving any competitor of
 Gaussian, Inc. access to this program.  By using this program,
 the user acknowledges that Gaussian, Inc. is engaged in the
 business of creating and licensing software in the field of
 computational chemistry and represents and warrants to the
 licensee that it is not a competitor of Gaussian, Inc. and that
 it will not use this program in any manner prohibited above.
 ---------------------------------------------------------------
  

 Cite this work as:
 Gaussian 09, Revision A.02,
 M. J. Frisch, G. W. Trucks, H. B. Schlegel, G. E. Scuseria, 
 M. A. Robb, J. R. Cheeseman, G. Scalmani, V. Barone, B. Mennucci, 
 G. A. Petersson, H. Nakatsuji, M. Caricato, X. Li, H. P. Hratchian, 
 A. F. Izmaylov, J. Bloino, G. Zheng, J. L. Sonnenberg, M. Hada, 
 M. Ehara, K. Toyota, R. Fukuda, J. Hasegawa, M. Ishida, T. Nakajima, 
 Y. Honda, O. Kitao, H. Nakai, T. Vreven, J. A. Montgomery, Jr., 
 J. E. Peralta, F. Ogliaro, M. Bearpark, J. J. Heyd, E. Brothers, 
 K. N. Kudin, V. N. Staroverov, R. Kobayashi, J. Normand, 
 K. Raghavachari, A. Rendell, J. C. Burant, S. S. Iyengar, J. Tomasi, 
 M. Cossi, N. Rega, J. M. Millam, M. Klene, J. E. Knox, J. B. Cross, 
 V. Bakken, C. Adamo, J. Jaramillo, R. Gomperts, R. E. Stratmann, 
 O. Yazyev, A. J. Austin, R. Cammi, C. Pomelli, J. W. Ochterski, 
 R. L. Martin, K. Morokuma, V. G. Zakrzewski, G. A. Voth, 
 P. Salvador, J. J. Dannenberg, S. Dapprich, A. D. Daniels, 
 O. Farkas, J. B. Foresman, J. V. Ortiz, J. Cioslowski, 
 and D. J. Fox, Gaussian, Inc., Wallingford CT, 2009.
 
 ******************************************
 Gaussian 09:  EM64L-G09RevA.02 11-Jun-2009
                 5-Oct-2018 
 ******************************************
 %chk=h2_geom002.chk
 %nproc=28
 Will use up to   28 processors via shared memory.
 %mem=120gb
 --------------------------------
 #p b3lyp/sto-3g gfprint units=AU
 --------------------------------
 1/20=1,38=1/1;
 2/12=2,17=6,18=5,40=1/2;
 3/6=3,11=2,16=1,24=100,25=1,30=1,74=-5/1,2,3;
 4//1;
 5/5=2,38=5/2;
 6/7=2,8=2,9=2,10=2,28=1/1;
 99/5=1,9=1/99;
 Leave Link    1 at Fri Oct  5 16:47:44 2018, MaxMem=16106127360 cpu:       3.2
 (Enter /sw/contrib/gaussian/g09/A02/g09/l101.exe)
 ----------------------------------------------------------------------
 Test calculation for H2 diatomic for batch script development. Equilib
 rium bond length 1.4 Bohr radii. Closed shell, 2e- wavefunction --date
 =2018.10.05
 ----------------------------------------------------------------------
 Symbolic Z-matrix:
 Charge =  0 Multiplicity = 1
 H                     0.        0.        0. 
 H                     0.        0.        1.6 
 
 NAtoms=      2 NQM=      2 NQMF=      0 NMic=      0 NMicF=      0 NTot=      2.
                    Isotopes and Nuclear Properties:
 (Nuclear quadrupole moments (NQMom) in fm**2, nuclear magnetic moments (NMagM)
  in nuclear magnetons)

  Atom         1           2
 IAtWgt=           1           1
 AtmWgt=   1.0078250   1.0078250
 NucSpn=           1           1
 AtZEff=   0.0000000   0.0000000
 NQMom=    0.0000000   0.0000000
 NMagM=    2.7928460   2.7928460
 Leave Link  101 at Fri Oct  5 16:47:44 2018, MaxMem=16106127360 cpu:       1.7
 (Enter /sw/contrib/gaussian/g09/A02/g09/l202.exe)
                          Input orientation:                          
 ---------------------------------------------------------------------
 Center     Atomic      Atomic             Coordinates (Angstroms)
 Number     Number       Type             X           Y           Z
 ---------------------------------------------------------------------
      1          1           0        0.000000    0.000000    0.000000
      2          1           0        0.000000    0.000000    0.846684
 ---------------------------------------------------------------------
 Stoichiometry    H2
 Framework group  D*H[C*(H.H)]
 Deg. of freedom     1
 Full point group                 D*H     NOp   8
 Largest Abelian subgroup         D2H     NOp   8
 Largest concise Abelian subgroup C2      NOp   2
                         Standard orientation:                         
 ---------------------------------------------------------------------
 Center     Atomic      Atomic             Coordinates (Angstroms)
 Number     Number       Type             X           Y           Z
 ---------------------------------------------------------------------
      1          1           0        0.000000    0.000000    0.423342
      2          1           0        0.000000    0.000000   -0.423342
 ---------------------------------------------------------------------
 Rotational constants (GHZ):      0.0000000   1399.0067860   1399.0067860
 Leave Link  202 at Fri Oct  5 16:47:44 2018, MaxMem=16106127360 cpu:       0.3
 (Enter /sw/contrib/gaussian/g09/A02/g09/l301.exe)
 Standard basis: STO-3G (5D, 7F)
 Ernie: Thresh=  0.10000D-02 Tol=  0.10000D-05 Strict=F.
 AO basis set (Overlap normalization):
 Atom H1       Shell     1 S   3     bf    1 -     1          0.000000000000          0.000000000000          0.800000000000
      0.3425250914D+01  0.1543289673D+00
      0.6239137298D+00  0.5353281423D+00
      0.1688554040D+00  0.4446345422D+00
 Atom H2       Shell     2 S   3     bf    2 -     2          0.000000000000          0.000000000000         -0.800000000000
      0.3425250914D+01  0.1543289673D+00
      0.6239137298D+00  0.5353281423D+00
      0.1688554040D+00  0.4446345422D+00
 There are     1 symmetry adapted basis functions of AG  symmetry.
 There are     0 symmetry adapted basis functions of B1G symmetry.
 There are     0 symmetry adapted basis functions of B2G symmetry.
 There are     0 symmetry adapted basis functions of B3G symmetry.
 There are     0 symmetry adapted basis functions of AU  symmetry.
 There are     1 symmetry adapted basis functions of B1U symmetry.
 There are     0 symmetry adapted basis functions of B2U symmetry.
 There are     0 symmetry adapted basis functions of B3U symmetry.
 Integral buffers will be    131072 words long.
 Raffenetti 2 integral format.
 Two-electron integral symmetry is turned on.
     2 basis functions,     6 primitive gaussians,     2 cartesian basis functions
     1 alpha electrons        1 beta electrons
       nuclear repulsion energy         0.6250000000 Hartrees.
 IExCor=  402 DFT=T Ex+Corr=B3LYP ExCW=0 ScaHFX=  0.200000
 ScaDFX=  0.800000  0.720000  1.000000  0.810000 ScalE2=  1.000000  1.000000
 IRadAn=      0 IRanWt=     -1 IRanGd=            0 ICorTp=0
 NAtoms=    2 NActive=    2 NUniq=    1 SFac= 3.00D+00 NAtFMM=   80 NAOKFM=F Big=F
 Leave Link  301 at Fri Oct  5 16:47:44 2018, MaxMem=16106127360 cpu:       1.1
 (Enter /sw/contrib/gaussian/g09/A02/g09/l302.exe)
 NPDir=0 NMtPBC=     1 NCelOv=     1 NCel=       1 NClECP=     1 NCelD=      1
         NCelK=      1 NCelE2=     1 NClLst=     1 CellRange=     0.0.
 One-electron integrals computed using PRISM.
 One-electron integral symmetry used in STVInt
 NBasis=     2 RedAO= T  NBF=     1     0     0     0     0     1     0     0
 NBsUse=     2 1.00D-06 NBFU=     1     0     0     0     0     1     0     0
 Precomputing XC quadrature grid using
 IXCGrd= 2 IRadAn=           0 IRanWt=          -1 IRanGd=           0 AccXCQ= 1.00D-10.
 NRdTot=     120 NPtTot=       15168 NUsed=       16047 NTot=       16079
 NSgBfM=     2     2     2     2     2 NAtAll=     2     2.
 Leave Link  302 at Fri Oct  5 16:47:45 2018, MaxMem=16106127360 cpu:       3.2
 (Enter /sw/contrib/gaussian/g09/A02/g09/l303.exe)
 DipDrv:  MaxL=1.
 Leave Link  303 at Fri Oct  5 16:47:45 2018, MaxMem=16106127360 cpu:       0.6
 (Enter /sw/contrib/gaussian/g09/A02/g09/l401.exe)
 Harris functional with IExCor=  402 diagonalized for initial guess.
 ExpMin= 1.69D-01 ExpMax= 3.43D+00 ExpMxC= 3.43D+00 IAcc=1 IRadAn=         1 AccDes= 0.00D+00
 HarFok:  IExCor=  402 AccDes= 0.00D+00 IRadAn=         1 IDoV= 1
 ScaDFX=  1.000000  1.000000  1.000000  1.000000
 FoFCou: FMM=F IPFlag=           0 FMFlag=      100000 FMFlg1=           0
         NFxFlg=           0 DoJE=T BraDBF=F KetDBF=T FulRan=T
         Omega=  0.000000  0.000000  1.000000  0.000000  0.000000 ICntrl=     500 IOpCl=  0
         NMat0=    1 NMatS0=    1 NMatT0=    0 NMatD0=    1 NMtDS0=    0 NMtDT0=    0
         I1Cent=           4 NGrid=           0.
 Petite list used in FoFCou.
 Harris En= -1.16102907359832    
 Initial guess orbital symmetries:
       Occupied  (SGG)
       Virtual   (SGU)
 The electronic state of the initial guess is 1-SGG.
 Leave Link  401 at Fri Oct  5 16:47:45 2018, MaxMem=16106127360 cpu:       2.9
 (Enter /sw/contrib/gaussian/g09/A02/g09/l502.exe)
 Closed shell SCF:
 Requested convergence on RMS density matrix=1.00D-08 within 128 cycles.
 Requested convergence on MAX density matrix=1.00D-06.
 Requested convergence on             energy=1.00D-06.
 No special actions if energy rises.
 Using DIIS extrapolation, IDIIS=  1040.
 Integral symmetry usage will be decided dynamically.
        16016 words used for storage of precomputed grid.
 Keep R1 ints in memory in canonical form, NReq=861873.
 IEnd=       36223 IEndB=       36223 NGot= 16106127360 MDV= 16106108206
 LenX= 16106108206 LenY= 16106107324
 Symmetry not used in FoFDir.
 MinBra= 0 MaxBra= 0 Meth= 1.
 IRaf=       0 NMat=   1 IRICut=       1 DoRegI=T DoRafI=F ISym2E= 0 JSym2E=0.
 Integral accuracy reduced to 1.0D-05 until final iterations.

 Cycle   1  Pass 0  IDiag  1:
 E= -1.15568866500858    
 DIIS: error= 0.00D+00 at cycle   1 NSaved=   1.
 NSaved= 1 IEnMin= 1 EnMin= -1.15568866500858     IErMin= 1 ErrMin= 0.00D+00
 ErrMax= 0.00D+00 EMaxC= 1.00D-01 BMatC= 0.00D+00 BMatP= 0.00D+00
 IDIUse=1 WtCom= 1.00D+00 WtEn= 0.00D+00
 Coeff-Com:  0.100D+01
 Coeff:      0.100D+01
 Gap=     0.718 Goal=   None    Shift=    0.000
 RMSDP=0.00D+00 MaxDP=0.00D+00              OVMax= 0.00D+00

 Initial convergence to 1.0D-05 achieved.  Increase integral accuracy.
 Cycle   2  Pass 1  IDiag  1:
 E= -1.15568841900667     Delta-E=        0.000000246002 Rises=F Damp=F
 DIIS: error= 0.00D+00 at cycle   1 NSaved=   1.
 NSaved= 1 IEnMin= 1 EnMin= -1.15568841900667     IErMin= 1 ErrMin= 0.00D+00
 ErrMax= 0.00D+00 EMaxC= 1.00D-01 BMatC= 0.00D+00 BMatP= 0.00D+00
 IDIUse=1 WtCom= 1.00D+00 WtEn= 0.00D+00
 Coeff-Com:  0.100D+01
 Coeff:      0.100D+01
 Gap=     0.718 Goal=   None    Shift=    0.000
 RMSDP=0.00D+00 MaxDP=0.00D+00 DE= 2.46D-07 OVMax= 0.00D+00

 Cycle   3  Pass 1  IDiag  1:
 E= -1.15568841900667     Delta-E=        0.000000000000 Rises=F Damp=F
 DIIS: error= 0.00D+00 at cycle   2 NSaved=   2.
 NSaved= 2 IEnMin= 1 EnMin= -1.15568841900667     IErMin= 1 ErrMin= 0.00D+00
 ErrMax= 0.00D+00 EMaxC= 1.00D-01 BMatC= 0.00D+00 BMatP= 0.00D+00
 IDIUse=1 WtCom= 1.00D+00 WtEn= 0.00D+00
 Coeff-Com:  0.000D+00 0.100D+01
 Coeff:      0.000D+00 0.100D+01
 Gap=     0.718 Goal=   None    Shift=    0.000
 RMSDP=0.00D+00 MaxDP=0.00D+00 DE= 0.00D+00 OVMax= 0.00D+00

 SCF Done:  E(RB3LYP) =  -1.15568841901     A.U. after    3 cycles
             Convg  =    0.0000D+00             -V/T =  1.9797
 KE= 1.179672454436D+00 PE=-3.562320405440D+00 EE= 6.019595319968D-01
 Leave Link  502 at Fri Oct  5 16:47:45 2018, MaxMem=16106127360 cpu:       1.5
 (Enter /sw/contrib/gaussian/g09/A02/g09/l601.exe)
 Copying SCF densities to generalized density rwf, IOpCl= 0 IROHF=0.

 **********************************************************************

            Population analysis using the SCF density.

 **********************************************************************

 Orbital symmetries:
       Occupied  (SGG)
       Virtual   (SGU)
 The electronic state is 1-SGG.
 Alpha  occ. eigenvalues --   -0.38100
 Alpha virt. eigenvalues --    0.33679
          Condensed to atoms (all electrons):
              1          2
     1  H    0.628608   0.371392
     2  H    0.371392   0.628608
 Mulliken atomic charges:
              1
     1  H    0.000000
     2  H    0.000000
 Sum of Mulliken atomic charges =   0.00000
 Mulliken charges with hydrogens summed into heavy atoms:
              1
 Sum of Mulliken charges with hydrogens summed into heavy atoms =   0.00000
 Electronic spatial extent (au):  <R**2>=              5.0544
 Charge=              0.0000 electrons
 Dipole moment (field-independent basis, Debye):
    X=              0.0000    Y=              0.0000    Z=             -0.0000  Tot=              0.0000
 Quadrupole moment (field-independent basis, Debye-Ang):
   XX=             -1.8636   YY=             -1.8636   ZZ=             -1.3495
   XY=              0.0000   XZ=             -0.0000   YZ=              0.0000
 Traceless Quadrupole moment (field-independent basis, Debye-Ang):
   XX=             -0.1714   YY=             -0.1714   ZZ=              0.3427
   XY=              0.0000   XZ=             -0.0000   YZ=              0.0000
 Octapole moment (field-independent basis, Debye-Ang**2):
  XXX=             -0.0000  YYY=              0.0000  ZZZ=              0.0000  XYY=             -0.0000
  XXY=              0.0000  XXZ=              0.0000  XZZ=             -0.0000  YZZ=              0.0000
  YYZ=              0.0000  XYZ=              0.0000
 Hexadecapole moment (field-independent basis, Debye-Ang**3):
 XXXX=             -1.5522 YYYY=             -1.5522 ZZZZ=             -2.7313 XXXY=              0.0000
 XXXZ=              0.0000 YYYX=              0.0000 YYYZ=              0.0000 ZZZX=              0.0000
 ZZZY=              0.0000 XXYY=             -0.5174 XXZZ=             -0.7314 YYZZ=             -0.7314
 XXYZ=              0.0000 YYXZ=              0.0000 ZZXY=              0.0000
 N-N= 6.250000000000D-01 E-N=-3.562320405440D+00  KE= 1.179672454436D+00
 Symmetry AG   KE= 1.179672454436D+00
 Symmetry B1G  KE= 0.000000000000D+00
 Symmetry B2G  KE= 0.000000000000D+00
 Symmetry B3G  KE= 0.000000000000D+00
 Symmetry AU   KE= 0.000000000000D+00
 Symmetry B1U  KE= 0.000000000000D+00
 Symmetry B2U  KE= 0.000000000000D+00
 Symmetry B3U  KE= 0.000000000000D+00
 No NMR shielding tensors so no spin-rotation constants.
 Leave Link  601 at Fri Oct  5 16:47:45 2018, MaxMem=16106127360 cpu:       5.0
 (Enter /sw/contrib/gaussian/g09/A02/g09/l9999.exe)
 1\1\GINC-N2162\SP\RB3LYP\STO-3G\H2\JJRADLER\05-Oct-2018\0\\#p b3lyp/st
 o-3g gfprint units=AU\\Test calculation for H2 diatomic for batch scri
 pt development. Equilibrium bond length 1.4 Bohr radii. Closed shell, 
 2e- wavefunction --date=2018.10.05\\0,1\H,0,0.,0.,0.\H,0,0.,0.,0.84668
 35337\\Version=EM64L-G09RevA.02\State=1-SGG\HF=-1.1556884\RMSD=0.000e+
 00\Dipole=0.,0.,0.\Quadrupole=-0.1273974,-0.1273974,0.2547947,0.,0.,0.
 \PG=D*H [C*(H1.H1)]\\@


 The arm of the moral universe is long, but it bends toward justice.
 -- Martin Luther King, Jr.
 Job cpu time:  0 days  0 hours  0 minutes 23.3 seconds.
 File lengths (MBytes):  RWF=      5 Int=      0 D2E=      0 Chk=      8 Scr=      1
 Normal termination of Gaussian 09 at Fri Oct  5 16:47:45 2018.
